#     Step Nr.          Time[fs]        Kin.[a.u.]          Temp[K]            Pot.[a.u.]        Cons Qty[a.u.]        UsedTime[s]
         0            0.000000         1.537647190       300.000000000     -9834.798218308     -9833.260571118         0.000000000
        10            5.000000         1.537647190       300.000000000     -9848.171897039     -9846.610793468        46.773422830
        20           10.000000         1.537647190       300.000000000     -9850.896707755     -9849.338537045        46.625467092
        30           15.000000         1.537647190       300.000000000     -9853.169753609     -9851.604440887        47.108387761
        40           20.000000         1.537647190       300.000000000     -9854.555175082     -9852.962075134        46.995311491
        50           25.000000         1.632247440       318.456818488     -9855.479270638     -9853.798775550        46.963429108
        60           30.000000         1.586646882       309.560000335     -9855.566447688     -9853.916935966        48.538752817
        70           35.000000         1.537647190       300.000000000     -9854.906006766     -9853.314755806        47.114130750
        80           40.000000         1.537647190       300.000000000     -9853.812501214     -9852.218430254        47.080718145
        90           45.000000         1.537647190       300.000000000     -9852.328202442     -9850.743289368        47.119901553
       100           50.000000         1.537647190       300.000000000     -9850.495676443     -9848.909900848        47.094883405
       110           55.000000         1.537647190       300.000000000     -9849.494173541     -9847.889316485        47.060524158
       120           60.000000         1.537647190       300.000000000     -9850.943532977     -9849.333188184        47.092288166
       130           65.000000         1.537647190       300.000000000     -9853.277020788     -9851.662462318        46.942382395
       140           70.000000         1.621934675       316.444764245     -9854.232449565     -9852.528267108        47.162638687
       150           75.000000         1.596339099       311.450983532     -9854.850959490     -9853.179101284        47.015901402
       160           80.000000         1.537647190       300.000000000     -9855.226432763     -9853.623395388        47.091428444
       170           85.000000         1.452687238       283.424035331     -9854.895691099     -9853.382750461        47.083026804
       180           90.000000         1.446332857       282.184274830     -9854.130892870     -9852.639052425        47.304775573
       190           95.000000         1.435472721       280.065426641     -9852.830696393     -9851.350683492        47.217638277
       200          100.000000         1.618477058       315.770171788     -9852.722277757     -9851.071149746        47.089345738
       210          105.000000         1.537647190       300.000000000     -9852.878761046     -9851.294540459        46.968164101
       220          110.000000         1.537647190       300.000000000     -9853.999113941     -9852.415654679        47.159744471
       230          115.000000         1.537647190       300.000000000     -9854.783414365     -9853.216980738        47.186438575
       240          120.000000         1.522038305       296.954655531     -9855.011120461     -9853.469803111        47.124184050
       250          125.000000         1.537647190       300.000000000     -9854.769974678     -9853.221481793        47.131514363
       260          130.000000         1.537647190       300.000000000     -9854.014152678     -9852.473548125        46.982766896
       270          135.000000         1.537647190       300.000000000     -9853.379431098     -9851.832077251        46.852069341
       280          140.000000         1.457869526       284.435116655     -9852.703714932     -9851.253918002        47.087159589
       290          145.000000         1.537647190       300.000000000     -9853.212685780     -9851.709076974        46.843910962
       300          150.000000         1.596455399       311.473674158     -9854.195306890     -9852.633246883        46.822944432
       310          155.000000         1.584262342       309.094768761     -9854.527542434     -9852.974061437        46.994382247
       320          160.000000         1.594595147       311.110732779     -9854.970915285     -9853.404835477        47.175130777
       330          165.000000         1.537647190       300.000000000     -9854.519103467     -9853.038374623        47.043046750
       340          170.000000         1.537647190       300.000000000     -9854.113211619     -9852.641484001        47.115593545
       350          175.000000         1.537647190       300.000000000     -9853.300402724     -9851.859982615        46.903813548
       360          180.000000         1.578043811       307.881513047     -9853.327226980     -9851.842197818        47.044268958
       370          185.000000         1.575777445       307.439337505     -9853.837564243     -9852.366009998        46.979073979
       380          190.000000         1.586875312       309.604567753     -9854.173343276     -9852.699656248        35.861788824
       390          195.000000         1.537647190       300.000000000     -9854.831183929     -9853.402132127        46.990312792
       400          200.000000         1.492832989       291.256602644     -9854.658755517     -9853.274967871        47.030166350
       410          205.000000         1.524065767       297.350219959     -9854.286186422     -9852.870041206        47.135088794
       420          210.000000         1.488781416       290.466127620     -9853.858022709     -9852.479673777        47.167508230
       430          215.000000         1.553913788       303.173666554     -9853.363033799     -9851.936291445        47.203132719
       440          220.000000         1.537647190       300.000000000     -9853.685504254     -9852.271222292        47.094899818
       450          225.000000         1.593919136       310.978840961     -9853.952828216     -9852.482142294        47.037797101
       460          230.000000         1.613164629       314.733699480     -9854.593349833     -9853.102286547        47.439087391
       470          235.000000         1.506934226       294.007800161     -9854.743427892     -9853.369980145        47.015799329
       480          240.000000         1.526316746       297.789393342     -9854.541177841     -9853.145087985        47.062574245
       490          245.000000         1.537647190       300.000000000     -9854.311972917     -9852.891812953        47.109836437
       500          250.000000         1.501022094       292.854323836     -9853.846947106     -9852.480820213        47.181478083
       510          255.000000         1.445767937       282.074056904     -9853.545853626     -9852.231114509        47.057532497
       520          260.000000         1.570338827       306.378245425     -9853.806817158     -9852.351231434        47.198226333
       530          265.000000         1.537647190       300.000000000     -9854.150551763     -9852.735470758        47.153810300
       540          270.000000         1.596711377       311.523616213     -9854.486643475     -9853.004680471        47.254579425
       550          275.000000         1.580114092       308.285431642     -9854.480543686     -9853.003399344        47.025093310
       560          280.000000         1.465322508       285.889217784     -9854.593986104     -9853.226730702        46.915271960
       570          285.000000         1.537647190       300.000000000     -9854.067371398     -9852.620939370        47.044998281
       580          290.000000         1.501718125       292.990121834     -9853.923395730     -9852.510771737        46.864162900
       590          295.000000         1.537647190       300.000000000     -9853.737824301     -9852.289031493        47.108311944
       600          300.000000         1.537647190       300.000000000     -9853.953449039     -9852.504794920        47.300795846
       610          305.000000         1.592256065       310.654370299     -9854.262549385     -9852.748073737        35.796167046
       620          310.000000         1.600893487       312.339559512     -9854.520723274     -9852.977717341        35.638860494
       630          315.000000         1.557831752       303.938074100     -9854.715144365     -9853.203124247        47.122927837
       640          320.000000         1.469944238       286.790932385     -9854.387218669     -9852.958304758        47.017298572
       650          325.000000         1.449180857       282.739928770     -9854.264264046     -9852.856159306        47.139662020
       660          330.000000         1.494083968       291.500672896     -9854.089695437     -9852.638376400        47.151715256
       670          335.000000         1.550801944       302.566535587     -9853.892036936     -9852.395675798        46.973678641
       680          340.000000         1.580397582       308.340741366     -9854.183888769     -9852.663030727        47.028071538
       690          345.000000         1.545726428       301.576285797     -9854.367522368     -9852.884502441        47.170505345
       700          350.000000         1.563862562       305.114704924     -9854.504586419     -9853.015760304        47.239011213
       710          355.000000         1.595623388       311.311346093     -9854.534106448     -9853.016412162        47.361462995
       720          360.000000         1.468235783       286.457607232     -9854.385164318     -9853.015365466        47.107101515
       730          365.000000         1.447368475       282.386327125     -9854.346892098     -9853.016195667        47.072713383
       740          370.000000         1.437012987       280.365937684     -9854.005452862     -9852.689846705        47.086780667
       750          375.000000         1.574286624       307.148473535     -9854.135857761     -9852.691040370        47.066144228
       760          380.000000         1.565077014       305.351648461     -9854.123010648     -9852.690226651        47.097790807
       770          385.000000         1.613168501       314.734455068     -9854.157979435     -9852.689946335        46.954756387
       780          390.000000         1.549603910       302.332795181     -9854.217142388     -9852.802048555        47.307123408
       790          395.000000         1.529432449       298.397277192     -9854.314341168     -9852.917343222        47.028462015
       800          400.000000         1.500149929       292.684161666     -9854.273610571     -9852.917414327        47.310548730
       810          405.000000         1.487163173       290.150403000     -9854.246909199     -9852.917382353        46.965620093
       820          410.000000         1.539362781       300.334717474     -9854.286712663     -9852.917376317        47.104121536
       830          415.000000         1.522995961       297.141497365     -9854.293256279     -9852.917563809        47.159731045
       840          420.000000         1.439084492       280.770095082     -9854.215526534     -9852.916500980        47.172726572
       850          425.000000         1.546970309       301.818971129     -9854.406871930     -9853.026354759        47.091740720
       860          430.000000         1.524320691       297.399956500     -9854.371576148     -9853.026089187        46.966925018
       870          435.000000         1.446357672       282.189116134     -9854.289245434     -9853.026509379        47.180657752
       880          440.000000         1.516650164       295.903411530     -9854.140986777     -9852.814367770        47.136405967
       890          445.000000         1.520504501       296.655405339     -9854.139488389     -9852.815182562        47.076723255
       900          450.000000         1.488997621       290.508309793     -9854.006160370     -9852.709401230        47.135287039
       910          455.000000         1.548086407       302.036725500     -9854.079681879     -9852.709895836        47.137576498
       920          460.000000         1.596650615       311.511761442     -9854.243330567     -9852.820271925        47.096176051
       930          465.000000         1.605554692       313.248975919     -9854.262872500     -9852.820491352        47.070489004
       940          470.000000         1.548256440       302.069899412     -9854.207375745     -9852.819771128        47.146991819
       950          475.000000         1.622677648       316.589720768     -9854.404565485     -9852.946381494        47.243224636
       960          480.000000         1.505251020       293.679401150     -9854.308674318     -9852.945707384        47.445810944
       970          485.000000         1.511409974       294.881033193     -9854.332527754     -9852.946195580        47.093782522
       980          490.000000         1.553867823       303.164698596     -9854.367904490     -9852.946287261        47.189167663
       990          495.000000         1.589815084       310.178126944     -9854.423066288     -9852.946168948        47.179688424
      1000          500.000000         1.602945242       312.739863669     -9854.436372529     -9852.946536255        47.176244333
      1010          505.000000         1.579528101       308.171102921     -9854.431940977     -9852.946276917        47.171039663
      1020          510.000000         1.519946271       296.546492798     -9854.494885049     -9853.052066673        47.059528008
      1030          515.000000         1.468757762       286.559447047     -9854.330859924     -9852.945076037        47.355800740
      1040          520.000000         1.537647190       300.000000000     -9854.184498227     -9852.724245747        47.148981690
      1050          525.000000         1.521383970       296.826992533     -9854.176660442     -9852.724553021        47.184034534
      1060          530.000000         1.483301418       289.396962089     -9854.166951479     -9852.724345385        50.660112381
      1070          535.000000         1.540290139       300.515647998     -9854.225925311     -9852.724619531        47.294908933
      1080          540.000000         1.607897839       313.706131598     -9854.315951629     -9852.724497650        47.412696518
      1090          545.000000         1.622134897       316.483828182     -9854.444787699     -9852.840488040        47.266891159
      1100          550.000000         1.491117087       290.921824704     -9854.423029956     -9852.946473890        47.432633117
      1110          555.000000         1.498816526       292.424010432     -9854.431462350     -9852.946301875        47.283954792
      1120          560.000000         1.528842317       298.282140473     -9854.465798778     -9852.946785039        47.219268717
      1130          565.000000         1.512520272       295.097656029     -9854.347127725     -9852.843315987        47.111867942
      1140          570.000000         1.567700186       305.863437892     -9854.401135943     -9852.843879348        47.566415414
      1150          575.000000         1.583365333       308.919759458     -9854.404399341     -9852.843643325        47.672338031
      1160          580.000000         1.595502598       311.287779406     -9854.512806216     -9852.955603121        47.572663642
      1170          585.000000         1.497013514       292.072236864     -9854.438319866     -9852.955045742        47.288907401
      1180          590.000000         1.530661175       298.637005710     -9854.456231110     -9852.955368510        47.395038061
      1190          595.000000         1.446163751       282.151281601     -9854.378383198     -9852.955350211        47.565616757
      1200          600.000000         1.500860871       292.822868820     -9854.221998270     -9852.733103567        47.366857305
      1210          605.000000         1.484047871       289.542597422     -9854.208266375     -9852.733237407        47.478876121
      1220          610.000000         1.476982591       288.164138080     -9854.224468130     -9852.733255498        47.694362693
      1230          615.000000         1.495869028       291.848943780     -9854.240853740     -9852.733010545        47.473050579
      1240          620.000000         1.597639959       311.704785642     -9854.341939427     -9852.733143885        47.634881586
      1250          625.000000         1.537647190       300.000000000     -9854.392783479     -9852.842260215        47.176867217
      1260          630.000000         1.560647497       304.487435203     -9854.421024075     -9852.842239552        47.271075271
      1270          635.000000         1.521287180       296.808108551     -9854.388793080     -9852.842067437        47.486367188
      1280          640.000000         1.544404272       301.318328755     -9854.436532649     -9852.842230782        47.405264519
      1290          645.000000         1.534845981       299.453474884     -9854.416572834     -9852.842330413        47.358921640
      1300          650.000000         1.497666178       292.199573675     -9854.383797823     -9852.842056701        47.429888435
      1310          655.000000         1.530466176       298.598960723     -9854.408590645     -9852.842278007        47.475156412
      1320          660.000000         1.521267029       296.804176924     -9854.381830237     -9852.842099307        47.243623026
      1330          665.000000         1.482746535       289.288702571     -9854.355745323     -9852.842158231        47.361942612
      1340          670.000000         1.466770220       286.171671139     -9854.346438286     -9852.842195134        47.552005775
      1350          675.000000         1.466606141       286.139658726     -9854.333548114     -9852.842249358        47.533947818
      1360          680.000000         1.487778408       290.270437427     -9854.247417259     -9852.736954992        47.418472737
      1370          685.000000         1.478063830       288.375091365     -9854.243783515     -9852.736904422        47.463875845
      1380          690.000000         1.545261081       301.485495109     -9854.320218539     -9852.736734972        35.904053219
      1390          695.000000         1.594598835       311.111452441     -9854.350272429     -9852.736625953        35.935151882
      1400          700.000000         1.600454587       312.253928676     -9854.369104657     -9852.736592220        47.466942430
      1410          705.000000         1.538515168       300.169345358     -9854.407012065     -9852.844716554        47.573702887
      1420          710.000000         1.472728275       287.334107254     -9854.336316571     -9852.844173256        47.639016941
      1430          715.000000         1.531086301       298.719948999     -9854.390583172     -9852.844792176        47.559700891
      1440          720.000000         1.527228484       297.967276438     -9854.373751970     -9852.844537545        47.548502818
      1450          725.000000         1.587531750       309.732640951     -9854.439765705     -9852.845174177        47.704487883
      1460          730.000000         1.498679364       292.397249701     -9854.354313752     -9852.844520753        47.534258075
      1470          735.000000         1.535092155       299.501504345     -9854.394631749     -9852.844933401        47.422594272
      1480          740.000000         1.487727409       290.260487323     -9854.360536329     -9852.844695798        47.916660994
      1490          745.000000         1.450026904       282.904995370     -9854.335482042     -9852.844834949        47.541618720
      1500          750.000000         1.439653600       280.881129805     -9854.313949292     -9852.844842502        47.528826840
      1510          755.000000         1.515023559       295.586055461     -9854.305052126     -9852.738056980        47.616162539
      1520          760.000000         1.501009645       292.851894968     -9854.306315208     -9852.737945396        47.566818334
      1530          765.000000         1.583204386       308.888357991     -9854.392672721     -9852.738132170        47.699170634
      1540          770.000000         1.638049110       319.588743316     -9854.474683237     -9852.738116889        47.422042467
      1550          775.000000         1.591882524       310.581491110     -9854.526416816     -9852.848948731        47.626769185
      1560          780.000000         1.529350052       298.381201167     -9854.459085129     -9852.848730731        47.482253164
      1570          785.000000         1.500343129       292.721855677     -9854.415729545     -9852.848774151        47.663547881
      1580          790.000000         1.449742563       282.849519501     -9854.383070316     -9852.848637117        47.510888703
      1590          795.000000         1.462074423       285.255505755     -9854.373796820     -9852.848550647        47.679491483
      1600          800.000000         1.504143911       293.463400533     -9854.425052849     -9852.848624412        47.617294051
      1610          805.000000         1.515836019       295.744569114     -9854.436572387     -9852.848522480        47.517452538
      1620          810.000000         1.502569367       293.156201985     -9854.430809070     -9852.848651524        47.653538108
      1630          815.000000         1.478753884       288.509723230     -9854.382532752     -9852.848301037        47.643111221
      1640          820.000000         1.515273708       295.634860428     -9854.414386589     -9852.848317326        47.720070526
      1650          825.000000         1.484766424       289.682789386     -9854.389941672     -9852.848430967        47.680305161
      1660          830.000000         1.508302786       294.274810662     -9854.412115052     -9852.848688200        47.545876414
      1670          835.000000         1.532853785       299.064791091     -9854.432537692     -9852.848436262        47.637057021
      1680          840.000000         1.587682208       309.761995855     -9854.491461344     -9852.848722720        47.568785839
      1690          845.000000         1.584684666       309.177165630     -9854.478773467     -9852.848506934        47.434180483
      1700          850.000000         1.619889691       316.045781199     -9854.506835119     -9852.848805911        47.465991735
      1710          855.000000         1.574948727       307.277651894     -9854.492893018     -9852.848666103        48.251507834
      1720          860.000000         1.582202565       308.692899459     -9854.492872827     -9852.848994046        47.704914220
      1730          865.000000         1.540285638       300.514769818     -9854.449085892     -9852.848844125        47.588979043
      1740          870.000000         1.572035169       306.709207377     -9854.484362744     -9852.849109624        47.533644721
      1750          875.000000         1.530316114       298.569683066     -9854.439703955     -9852.848481449        47.687040277
      1760          880.000000         1.524048732       297.346896410     -9854.432966803     -9852.848060291        47.804734364
      1770          885.000000         1.495187520       291.715979474     -9854.400039146     -9852.848328323        47.751501337
      1780          890.000000         1.478544913       288.468952225     -9854.354184206     -9852.848430824        47.596936122
      1790          895.000000         1.534288161       299.344642478     -9854.333570710     -9852.743394526        47.583878577
      1800          900.000000         1.555763223       303.534497280     -9854.361079606     -9852.743316675        47.763415746
      1810          905.000000         1.614840023       315.060574380     -9854.412266081     -9852.743217792        47.888195373
      1820          910.000000         1.579750932       308.214577813     -9854.449589495     -9852.847474239        46.013434343
      1830          915.000000         1.566371137       305.604136185     -9854.449942389     -9852.847393907        46.048593298
      1840          920.000000         1.579284608       308.123596560     -9854.465071731     -9852.847259956        46.222577028
      1850          925.000000         1.487325469       290.182067506     -9854.381241160     -9852.847117902        46.139996663
      1860          930.000000         1.477629802       288.290411138     -9854.379180311     -9852.846966615        45.945440546
      1870          935.000000         1.506347549       293.893337569     -9854.410709812     -9852.847439796        46.334978908
      1880          940.000000         1.516746553       295.922217381     -9854.416329076     -9852.846364837        46.276540816
      1890          945.000000         1.557013026       303.778337962     -9854.475733477     -9852.846825655        46.152635731
      1900          950.000000         1.538441901       300.155050702     -9854.451515613     -9852.846997050        46.253219008
      1910          955.000000         1.550756064       302.557584195     -9854.456702755     -9852.846947453        35.167957924
      1920          960.000000         1.500536800       292.759641484     -9854.412586473     -9852.846635858        46.082289435
      1930          965.000000         1.513668930       295.321763089     -9854.441560281     -9852.846752495        46.164815068
      1940          970.000000         1.538942034       300.252628319     -9854.447637877     -9852.847144029        46.098200515
      1950          975.000000         1.537103507       299.893925636     -9854.463405861     -9852.846840944        46.241159074
      1960          980.000000         1.576949385       307.667986974     -9854.517630075     -9852.847004951        46.176264368
      1970          985.000000         1.589841824       310.183343927     -9854.553496600     -9852.847133501        46.191458367
      1980          990.000000         1.555402787       303.464175108     -9854.529389537     -9852.847046705        46.056514658
      1990          995.000000         1.546887701       301.802853922     -9854.535363958     -9852.846771780        34.877534859
      2000         1000.000000         1.499980297       292.651065964     -9854.494454845     -9852.846944554        45.996202335
      2010         1005.000000         1.479651875       288.684924187     -9854.477436264     -9852.846988569        46.146499485
      2020         1010.000000         1.554600980       303.307739982     -9854.432544930     -9852.743809313        46.157719888
      2030         1015.000000         1.607018701       313.534608905     -9854.478459063     -9852.743905906        46.274908975
      2040         1020.000000         1.573402394       306.975957368     -9854.451928401     -9852.743660681        35.070025310
      2050         1025.000000         1.542247162       300.897469586     -9854.405022454     -9852.743428298        46.274579361
      2060         1030.000000         1.508259699       294.266404259     -9854.363295569     -9852.743390619        46.158043161
      2070         1035.000000         1.519266040       296.413777550     -9854.380104747     -9852.743682478        46.522762284
      2080         1040.000000         1.529510123       298.412431609     -9854.409130659     -9852.743653755        46.348581724
      2090         1045.000000         1.598015177       311.777991944     -9854.494997671     -9852.743843421        46.350922979
      2100         1050.000000         1.558594687       304.086925172     -9854.567700529     -9852.849044823        46.247959599
      2110         1055.000000         1.582915221       308.831941098     -9854.573607945     -9852.849134858        46.307823591
      2120         1060.000000         1.551971694       302.794757714     -9854.554815845     -9852.848974901        46.310016729
      2130         1065.000000         1.536222421       299.722022902     -9854.538519959     -9852.849113426        46.364966840
      2140         1070.000000         1.494917894       291.663374580     -9854.506198669     -9852.849185050        46.363002032
      2150         1075.000000         1.470540562       286.907277237     -9854.472558733     -9852.849307975        46.324920572
      2160         1080.000000         1.485708630       289.866617022     -9854.489534820     -9852.849501291        46.256453767
      2170         1085.000000         1.493533953       291.393363007     -9854.482435920     -9852.849157672        46.185607694
      2180         1090.000000         1.500902735       292.831036658     -9854.466624756     -9852.849333728        46.249913901
      2190         1095.000000         1.494481819       291.578294791     -9854.452972817     -9852.848953517        46.364074402
      2200         1100.000000         1.494116716       291.507062122     -9854.463546187     -9852.849245941        46.069328047
      2210         1105.000000         1.445761595       282.072819741     -9854.393473035     -9852.848958689        46.081766635
      2220         1110.000000         1.544508056       301.338577476     -9854.393033169     -9852.740056137        46.382028677
      2230         1115.000000         1.570951945       306.497866719     -9854.414427929     -9852.739926336        46.218278639
      2240         1120.000000         1.603154026       312.780598070     -9854.458599146     -9852.740203042        47.119666830
      2250         1125.000000         1.605164136       313.172777231     -9854.464568445     -9852.740170717        46.234949835
      2260         1130.000000         1.619979927       316.063386413     -9854.470389203     -9852.740206359        46.159349561
      2270         1135.000000         1.571968526       306.696205071     -9854.427734847     -9852.739926031        46.464070380